	244
Lattice="10 0.0 0.0 0.0 10 0.0 0.0 0.0 10" pbc="True True True"
   H	       13.459600	        8.370270	       11.535700
   H	       11.900900	        8.400300	       12.534300
   H	        0.519117	        9.303230	       12.026600
   H	        1.781400	        9.294260	       13.427800
   H	       11.185500	        6.710160	       13.613800
   H	       10.623800	        4.262660	       13.511200
   H	       11.619000	        2.944830	       11.552100
   H	       13.023900	        3.955460	       10.037300
   H	       13.871200	        6.341670	       10.307000
   H	        1.848730	       11.129800	        0.329293
   H	       14.370800	       11.318800	       11.492000
   H	       14.143400	       13.773300	       11.874200
   H	        0.259636	       14.785700	       13.972900
   H	        1.221360	       13.337100	        0.818508
   H	       14.410200	        3.848800	        0.706332
   H	        0.209754	        3.581020	        2.313910
   H	        1.139050	        4.662680	        1.211760
   H	       12.355100	        4.472280	        2.056520
   H	       12.472700	        5.765110	        3.293970
   H	       13.246300	        4.057800	        3.459930
   H	        1.166260	        6.696070	        2.742300
   H	        0.627133	        5.513750	        3.927760
   H	       14.488200	        6.971260	        3.713980
   H	       11.506100	       11.865900	        2.839220
   H	       11.541500	       11.391900	        1.179620
   H	       12.781900	       12.563000	        1.681090
   H	       11.656300	        9.091510	        2.581940
   H	       12.065000	        9.806200	        4.161010
   H	       13.166600	        8.620360	        3.312100
   H	        0.095209	       11.936900	        2.091530
   H	        0.483997	       10.519600	        3.230890
   H	       14.244300	       11.865200	        3.761080
   H	       10.435200	        1.209010	        0.893405
   H	       11.644000	        2.365030	        0.289750
   H	       12.148400	       12.880000	       14.379400
   H	       11.949700	       12.716900	       12.598300
   H	       14.220300	        1.263740	        0.540400
   H	        1.008220	        0.521898	        2.139120
   H	        0.202170	       14.589500	        4.453350
   H	       12.575500	       14.719100	        4.872490
   H	       11.063500	        0.797590	        3.277520
   H	        9.842530	       11.965400	       11.812700
   H	       10.117000	       13.311500	        0.926019
   H	        7.825200	       12.692400	        1.470590
   H	        6.336740	       11.770400	       14.312300
   H	        7.299900	       11.535000	       12.135400
   H	        1.899900	        4.406590	       12.819200
   H	        0.300297	        4.436430	       13.567700
   H	        0.464406	        4.745390	       11.766600
   H	        1.712930	        2.595550	       10.615400
   H	        0.043593	        2.888340	       10.234800
   H	        0.533988	        1.295790	       10.673300
   H	        1.483610	        0.799711	       12.615500
   H	        1.200060	        1.569070	       14.159000
   H	        2.441120	        2.157420	       13.058200
   H	        7.132900	       14.625000	        9.927230
   H	        7.625140	       14.499400	       11.579500
   H	        8.482860	       13.538900	       10.300800
   H	        8.370130	        2.189130	       11.852500
   H	        7.276340	        2.138580	       10.474000
   H	        8.777780	        3.091250	       10.288500
   H	        8.390540	        0.341739	        8.306120
   H	       10.033500	       14.743300	        8.562780
   H	        9.737330	        1.568350	        8.380100
   H	        2.342510	        5.087080	       10.679900
   H	        4.054790	        4.613320	       10.405600
   H	        2.970870	        9.627640	       10.245400
   H	        1.671910	        8.580700	       10.316500
   H	        5.310920	        5.604770	        8.258330
   H	        5.210440	        5.107900	        5.923960
   H	        3.006360	        4.603120	        4.852430
   H	        0.933902	        4.169980	        6.286720
   H	        1.117590	        4.491670	        8.684830
   H	        4.456760	        9.127090	        7.633830
   H	        0.487266	        7.721240	        8.545250
   H	       14.775400	        7.640100	        6.138150
   H	        1.683100	        8.109370	        4.516870
   H	        3.918080	        8.841200	        5.240990
   H	        8.210020	        9.525560	       11.139100
   H	        9.277950	        8.205760	       11.762500
   H	        7.661830	        8.480030	       12.421200
   H	        8.402640	        7.024980	        8.368480
   H	        9.623550	        7.895770	        9.324670
   H	        8.273020	        8.718750	        8.704440
   H	        9.529090	        6.222400	       10.969200
   H	        8.184120	        5.312390	       10.404100
   H	        8.061210	        6.183380	       12.045700
   H	        2.905960	        9.500180	        0.301327
   H	        2.861510	        8.460890	        1.763620
   H	        1.822750	        8.185420	        0.365746
   H	        3.173500	        6.061400	        1.418340
   H	        3.864520	        5.274420	       14.716900
   H	        2.291960	        6.053290	       14.688300
   H	        5.642080	        8.827390	        0.656812
   H	        5.995000	        7.175550	        0.416365
   H	        5.085750	        7.704500	        1.902000
   H	        3.947950	        0.263868	       12.877100
   H	        2.961830	       13.844800	       13.813200
   H	        7.669980	        0.265829	       13.713400
   H	        7.701700	        0.451636	        0.526209
   H	        4.418160	       11.299100	       13.479400
   H	        5.209390	        9.876600	       11.802300
   H	        5.225910	       10.551900	        9.294700
   H	        4.557920	       12.992000	        8.792400
   H	        4.086980	       14.500700	       10.705000
   H	        8.124340	        2.857740	        0.875025
   H	        5.578020	        1.625530	       12.578900
   H	        4.852820	        3.915790	       12.110600
   H	        5.576990	        5.786350	       13.579300
   H	        7.548390	        5.247140	        0.413904
   H	        3.335570	       10.337000	        4.183000
   H	        2.414550	       11.202300	        2.934050
   H	        2.868640	       12.054800	        4.481630
   H	        4.502770	       13.849000	        4.284490
   H	        6.006610	       13.349700	        4.017610
   H	        5.010330	       12.379700	        5.231440
   H	        6.571070	       11.265600	        2.896190
   H	        5.259010	       10.267100	        2.093480
   H	        5.601440	       10.163300	        3.876030
   H	        3.208670	        1.456180	        4.211080
   H	        2.498560	        1.040950	        2.602460
   H	        2.331970	        2.681350	        3.401420
   H	        5.206810	        2.207910	        4.556440
   H	        4.588160	        3.799120	        4.084950
   H	        6.150440	        3.208440	        3.381950
   H	        3.473190	        4.284560	        2.463260
   H	        3.105730	        3.278380	        0.996145
   H	        4.714520	        4.073550	        1.243410
   O	       12.750600	        7.206150	        1.085410
   O	       12.881900	        9.805820	        0.196417
   O	       14.704800	        6.679850	        0.114716
   O	       14.782300	        9.246180	        1.090830
   O	       13.158800	        1.337560	       12.429000
   O	       10.163800	        0.953306	       12.521100
   O	       13.521300	        2.966370	       13.948200
   O	       11.188700	       14.611900	       10.888600
   O	        5.781180	        6.685480	       11.284300
   O	        3.218990	        7.549140	       12.648500
   O	        5.561530	        8.108070	        9.600350
   O	        5.206270	        8.464800	       13.245600
   O	        5.254300	       12.772600	        1.137960
   O	        4.338540	        1.011700	        0.648492
   O	        3.308590	       13.571000	        1.874840
   O	        5.685490	        0.384736	        2.360550
   C	       12.877300	        7.978630	       12.374200
   C	       12.639800	        6.595840	       12.065600
   C	        0.786316	        9.560740	       13.042600
   C	        0.625411	       11.004800	       13.336900
   C	       13.805700	        6.528450	        1.112110
   C	       14.202200	        5.499370	        2.086440
   C	        0.257266	        6.215920	        3.136170
   C	       13.671300	        9.848690	        1.174880
   C	       13.253700	       10.580300	        2.400740
   C	       12.224000	       11.604300	        2.050690
   C	       11.665500	        6.007270	       12.919300
   C	       11.299300	        4.710530	       12.792300
   C	       11.899300	        3.968340	       11.769100
   C	       12.664000	        4.601610	       10.832500
   C	       13.168300	        5.894400	       11.015100
   C	       14.737800	       11.769400	       12.459300
   C	       14.572700	       13.150800	       12.646000
   C	        0.206926	       13.710000	       13.813900
   C	        0.821358	       12.887200	       14.756300
   C	        1.168980	       11.613600	       14.449500
   C	        0.172269	        4.329520	        1.557830
   C	       12.988600	        4.885730	        2.822420
   C	       12.475400	        9.457500	        3.218640
   C	       14.499300	       11.243400	        2.885970
   C	       11.490100	        1.299680	        0.545901
   C	       12.516900	        0.989389	        1.646090
   C	       11.550700	       13.160800	       13.510600
   C	       10.073000	       12.822000	       13.649500
   C	       13.882000	        2.392510	       12.916600
   C	        0.513462	        2.672080	       12.397300
   C	        1.408660	        1.728840	       13.141800
   C	       10.186800	        0.446545	       11.304400
   C	        8.961950	        0.806814	       10.275500
   C	        7.977990	       14.470500	       10.565100
   C	       13.874000	        0.906546	        1.452220
   C	       14.775400	        0.455200	        2.400390
   C	       14.303800	        0.063788	        3.639090
   C	       12.932900	        0.174182	        3.846540
   C	       12.040800	        0.682566	        2.893190
   C	        9.498900	       12.939500	        0.142499
   C	        8.171190	       12.597900	        0.415847
   C	        7.333390	       12.167200	       14.143300
   C	        7.940110	       11.972200	       12.908400
   C	        9.311860	       12.244500	       12.631500
   C	        0.823555	        4.185250	       12.666500
   C	        0.674910	        2.311840	       10.914100
   C	        8.330150	        2.182960	       10.728300
   C	        9.225740	        0.686327	        8.777080
   C	        3.286000	        5.297390	       10.145500
   C	        3.136150	        5.232990	        8.650750
   C	        2.655440	        8.678310	        9.807160
   C	        2.480090	        8.551980	        8.304100
   C	        6.305240	        7.440030	       10.373000
   C	        7.859620	        7.482760	       10.416900
   C	        8.410670	        6.201420	       10.960700
   C	        4.173010	        7.838290	       13.460800
   C	        3.936620	        7.494420	        0.126156
   C	        2.829040	        8.459230	        0.682384
   C	        4.333970	        5.319580	        7.877640
   C	        4.290150	        5.086440	        6.492510
   C	        3.097460	        4.738170	        5.890040
   C	        1.914820	        4.574830	        6.666540
   C	        1.996850	        4.752950	        8.044120
   C	        1.230070	        8.058750	        7.796920
   C	        0.949307	        7.970390	        6.445820
   C	        1.926700	        8.275490	        5.548370
   C	        3.152650	        8.700210	        6.031520
   C	        3.443620	        8.867560	        7.368570
   C	        8.263970	        8.502820	       11.480000
   C	        8.595600	        7.798380	        9.116470
   C	        3.282040	        6.135580	        0.350065
   C	        5.202540	        7.828980	        0.821708
   C	        3.905180	       14.052300	       13.242800
   C	        4.162420	       13.025800	       12.199300
   C	        7.041100	        0.688348	       14.478900
   C	        6.703850	        2.109900	       14.247500
   C	        4.275440	       12.813500	        1.997360
   C	        4.513080	       11.887000	        3.219020
   C	        5.586720	       10.847000	        2.987080
   C	        4.871430	        1.188180	        1.874560
   C	        4.276500	        2.376680	        2.604410
   C	        2.999930	        1.800580	        3.201050
   C	        4.506010	       11.749400	       12.462100
   C	        4.913200	       10.861500	       11.438000
   C	        4.929180	       11.267600	       10.108800
   C	        4.538440	       12.646100	        9.800240
   C	        4.265310	       13.458600	       10.922000
   C	        5.861670	        2.410380	       13.228500
   C	        5.439500	        3.727300	       13.003600
   C	        5.881240	        4.759760	       13.796400
   C	        6.949070	        4.453990	       14.714000
   C	        7.328050	        3.160650	        0.190400
   C	        3.209250	       11.288300	        3.744640
   C	        5.055340	       12.893200	        4.281240
   C	        5.150140	        2.945160	        3.715260
   C	        3.901040	        3.580610	        1.723780
  Sn	       14.158100	        8.354520	       14.130200
  Sn	       11.837800	        0.385508	       13.492400
  Sn	        3.833460	        7.200410	       10.777000
  Sn	        5.338290	       14.213900	       14.730300