	192
Lattice="12.425416 0.0 0.0 0.0 12.425416 0.0 0.0 0.0 12.425416" Properties=species:S:1:pos:R:3:forces:R:3 pbc="True True True"
   H         5.673140         9.528940         6.247180         0.066719        -0.330722        -0.747051
   H         5.823640         8.732340         4.886350        -0.305683         0.418490         0.655888
   H         2.017790         8.399910         7.967680        -0.300536         0.354637        -0.568429
   H         1.199660         9.036360         6.769910         0.701029        -0.297633         0.555078
   H         9.241910         8.776880         9.838540         0.924098         0.261834         0.412794
   H        10.108600        10.088600        10.031300        -0.093787        -0.607274        -0.103175
   H         1.454940        11.201200         7.067030         0.623083         0.166727        -0.169333
   H         3.030610        11.224100         6.906410        -0.506333         0.022694         0.026296
   H         5.644420         6.394370        10.683700        -0.193283         0.864046        -0.090388
   H         4.997590         7.838020        10.764600         0.563944         0.013259        -0.074004
   H        11.225100         3.321480         7.508720        -0.052856         0.452707         0.100857
   H        10.544200         4.633480         8.078070        -0.308475        -0.417062         0.047613
   H        10.568500        10.990300         5.450560        -0.101284        -0.087358         0.597255
   H        11.236100        10.607700         6.835120        -0.232853         0.179850        -0.391008
   H         5.108500         7.338530         1.201410         0.271814         0.176626        -0.396627
   H         5.712460         8.802800         1.187330         0.032865        -0.233898        -0.333647
   H         6.054590         3.204390         6.116180        -0.181304         0.394426         1.061970
   H         6.566180         3.094360         7.611250        -0.315734         0.381109        -0.733808
   H         4.515870         3.150910         9.516790        -0.485021        -0.303950        -0.514374
   H         3.424900         2.466190         8.594840         0.351888        -0.193102         0.531201
   H         4.235760         1.199820         4.693590         0.351795         0.226673        -0.268164
   H         4.972490         2.546720         4.303540        -0.305746        -0.519032         0.270012
   H         1.296480         8.715280        10.177500        -0.304511         0.661796        -0.550081
   H         1.199630        10.182300         9.588080         0.151381        -0.709060        -0.240013
   H         7.058710        10.645600        11.226200        -0.028542        -0.629413        -0.037378
   H         7.197630         9.187350        10.623500        -0.350915         0.781688         0.305049
   H         7.992620         3.677610         1.617650         0.043938         0.278163         0.483955
   H         7.064610         3.833150         2.891870        -0.087291         0.154964        -0.678779
   H         6.326610         6.224610         3.674270         0.792017        -0.199342        -0.074902
   H         7.237270         5.967980         2.403880        -0.201069         0.338725         0.665290
   H         8.859490         2.606770        11.112400         0.968394         0.043914        -0.324018
   H        10.062900         2.313820        10.125000        -0.465992         0.293775         0.048161
   H         3.609450         8.474190         5.591580        -0.476605         0.641505        -0.730283
   H         2.775380         9.781960         5.270430         0.005054        -0.697253         0.054135
   H         9.065190         6.572440         6.915380        -0.586263         0.055681         0.001676
   H         8.552520         7.783440         7.798380        -0.026423        -0.254980        -0.239024
   H         9.796270         9.077180         6.207230        -0.606277        -0.490205        -0.140044
   H         8.694550         9.121110         5.069980        -0.028906         0.241521         0.322919
   H         4.621280         1.209810        10.542400        -0.485918        -0.328703         0.406763
   H         3.245230         1.785400        11.075600         0.796722        -0.182881        -0.215464
   H         3.020490         5.485400         9.044810         0.088832        -0.720159         0.987733
   H         3.551040         4.981890        10.449800        -0.850795         0.228394        -0.987902
   H        11.242800         7.469980         5.803920         0.225418        -0.421712         0.861032
   H        11.253000         6.381690         6.954830         0.265603         0.750823        -0.355356
   H         4.649850         5.769370         6.907020         0.117539        -0.214592         0.831923
   H         4.447260         4.437630         7.740380        -0.195364         0.690569         0.095273
   H         6.037860        11.062500         1.827690         0.741687         0.376007        -0.054805
   H         7.612730        11.225700         1.874800        -0.960858        -0.209406        -0.140482
   H         3.841230         9.608890         9.695600        -0.311581         0.567340         0.564845
   H         3.978340         9.948630        11.236600        -0.548307         0.013751        -0.554605
   H         8.279440         8.862440         2.926470        -0.384867        -0.005662         0.120984
   H         6.785430         9.380820         3.017520         0.506553        -0.310182         0.131117
   H         4.201370         8.446330         7.708520        -0.165449         0.006135         0.447813
   H         3.787480         7.543430         8.942430         0.255351         0.014366        -0.120803
   H         3.178230         1.922080         6.481450        -0.374837        -0.204578        -0.330507
   H         1.804100         2.018030         5.699400         0.234508        -0.433058         0.194971
   H         8.066660         1.201850         2.742990        -0.464160         0.319995        -0.531884
   H         7.558150         1.549240         1.283600         0.100534        -0.566709         0.651501
   H         5.432190         4.162310        11.238400         0.145862        -0.226954         0.294955
   H         6.795080         3.355180        11.226700        -0.567120         0.113642         0.227458
   H         8.061130         1.368680         7.669770         0.293903        -0.021750        -0.388278
   H         9.609020         1.546600         7.384400        -0.688437        -0.156238        -0.138998
   H         9.512230         7.178850         4.483290         0.035767        -0.543061        -0.700769
   H         9.235200         6.540920         3.060140         0.392656         0.856655         0.537839
   H         2.047820         1.677590         1.202760        -0.176716         0.314912         0.514513
   H         1.946100         2.692790         2.414410        -0.026434        -0.485112        -0.323403
   H         9.276270         3.530490         6.521750        -0.252222        -0.144527         0.665923
   H         8.702980         3.445870         7.995940         0.756582        -0.357444        -0.462843
   H         7.723290        10.983600         7.979560         0.739567        -0.039457        -0.197998
   H         9.237430        11.150600         7.545360        -0.894038         0.185072        -0.185424
   H        11.244700         8.287220         3.778300         0.618385        -0.220865        -0.254291
   H        11.229300         7.332960         2.514090         0.009042         0.179326         0.233096
   H         2.699910         6.970990        10.757500         0.014927         0.065240         0.266076
   H         1.197060         6.803420        11.229100         0.385268         0.162326        -0.040782
   H         6.755290         4.760530         9.035100         0.163866         0.300622        -0.206747
   H         7.023120         5.332300         7.582380         0.085788        -0.406724        -0.064301
   H         6.056520         7.444680         6.813020         0.234563         0.353473         0.384999
   H         7.382300         7.619890         5.964100        -0.248701         0.255608         0.131381
   H         8.791040         4.618870         9.851680         0.215208         0.502082        -0.389330
   H         8.621240         5.923200         8.969100        -0.341745        -0.371068         0.436662
   H        11.158100         8.571100        11.226200        -0.010785        -0.545592        -0.323494
   H        11.219600         7.003350        11.008400        -0.279512         0.297947         0.111881
   H         9.126310         3.220520         4.350950         0.247936         0.356859        -0.672965
   H        10.132900         4.250800         3.691870        -0.618595        -0.457503        -0.033998
   H        10.925200         7.590420         8.918500        -0.474400         0.814162        -0.330461
   H        10.700000         8.988030         8.207860        -0.183456        -0.770541         0.662448
   H         8.809260         5.223950         5.200230        -0.620337        -0.291486        -0.347642
   H         7.355220         4.615380         5.043760         0.660155         0.087032         0.277856
   H         1.197610         6.162210         1.675770         0.363797        -0.376242        -0.663807
   H         2.674690         6.469260         1.193060        -0.320011        -0.439568        -0.211004
   H         7.111100        11.227300         4.341820        -0.326135         0.380409         0.863148
   H         7.009020        11.246900         5.922410         0.014112         0.025265        -0.859717
   H         2.189990         6.693030         6.589490        -0.041134        -0.333777        -0.186924
   H         1.194160         5.549410         6.131760         0.267156         0.229867         0.030369
   H         4.493440         4.603860         4.912820        -0.228767         0.438949         0.563232
   H         3.160570         4.635640         5.768110         0.829383        -0.205249         0.175497
   H         8.601440         7.535900         1.203790        -0.158220         1.043860        -0.151195
   H         9.631500         8.739220         1.196020        -0.450175        -0.140260         0.119563
   H         1.567800         7.917830         3.414130         0.147081        -0.290826         0.055612
   H         1.188810         7.754830         4.943460        -0.112832        -0.076479        -0.296387
   H         4.648100         2.736640         2.137160         0.017639        -0.198484        -0.249185
   H         5.908270         3.009470         1.217050        -0.362724        -0.343152         0.698925
   H         5.816640        11.223300         9.049420        -0.229479        -0.516566         0.079221
   H         4.846710        10.589600         7.969240         0.411829         0.163394         0.563685
   H         4.646180         8.395970         3.065690        -0.665573        -0.107052        -0.395383
   H         3.307870         9.230370         3.213180         0.168317        -0.806934        -0.029572
   H         9.722520        11.237200         2.474970         0.059925        -0.131723         0.494315
   H        10.006800        10.086400         3.525690        -0.256629         0.546649        -0.362778
   H         9.257800         5.424980         1.198640         0.877127         0.324299        -0.073363
   H        10.706900         5.149200         1.775720        -0.484662         0.198649        -0.474688
   H         7.147670         2.270410         4.430010        -0.224215        -0.712596         0.175580
   H         6.371430         1.184590         5.282940         0.704882         0.445759        -0.045532
   H         7.732680         5.974470        11.218200         0.309436         0.725489        -0.011135
   H         8.330020         7.438110        11.318300         0.084933        -0.556555         0.125209
   H         1.448050         2.897260         9.863660        -0.120259         0.364294        -0.479034
   H         1.197950         4.267520         9.109420        -0.225346        -0.467222         0.100887
   H        11.223300         3.817740        11.232800         0.379380         0.350331        -0.150625
   H        11.264600         4.979000        10.156400        -0.035913        -0.763552         0.140895
   H         1.183740        10.921600         3.221090         0.520987         0.030318         0.015060
   H         2.654150        11.271600         3.694880        -0.402928        -0.013443        -0.416925
   H         6.405620         2.032570         9.529980        -0.076452        -0.278815        -0.317514
   H         5.426640         1.410430         8.451290         0.024546        -0.138234         0.339193
   H         2.730640         8.667410         1.168090        -0.485381        -0.192666        -0.073402
   H         1.190830         8.317570         1.293270         0.691602         0.134308        -0.086411
   H         2.938020         5.791190         3.913800         0.306405        -0.055722         0.012402
   H         4.148500         6.705220         4.370240        -0.182529        -0.299614         0.175572
   H         6.298850         7.657020         9.005920         0.405073         0.022873        -0.307295
   H         6.874260         9.027620         8.458710         0.121258        -0.315633         0.744829
   O         5.773230         9.614670         5.286170         0.971325        -0.796267         0.522971
   O         1.285960         8.992540         7.735070        -1.456760        -1.584880        -0.302571
   O         9.254420         9.740800         9.730840         0.922725        -1.239300         0.584112
   O         2.297470        10.970200         7.488560         0.347369         2.134470         0.161207
   O         5.088830         6.984580        11.216500        -0.887956        -0.252975         0.331078
   O        10.944200         3.782080         8.314850         1.210470        -0.431480        -0.039165
   O        11.226100        11.255000         6.112760         0.510001         0.130036         0.047360
   O         5.928150         7.857240         1.204740        -1.216920         0.963701        -1.154620
   O         6.737610         2.829530         6.693980        -2.012880        -1.157580        -0.381125
   O         3.568180         3.097930         9.316830         1.399560         1.148810        -2.107570
   O         4.169290         2.017890         4.176640         0.623112        -1.263850        -1.141590
   O         1.697260         9.598600        10.181800         0.194107        -0.183266         1.221320
   O         7.147390        10.131800        10.408200        -0.909490         0.986896         1.178000
   O         7.836390         3.373780         2.525490         0.054179         1.996920         0.596240
   O         6.391590         6.329510         2.712150        -0.517437        -1.914020         1.072260
   O         9.374630         1.910020        10.676500        -0.503446        -0.103932         0.648467
   O         3.530840         9.425580         5.763570        -0.878447         0.036808         1.926930
   O         9.338190         7.339300         7.442910        -0.600693         0.036687         0.776845
   O         8.953490         9.473380         5.935860         1.510660        -1.001240         0.219519
   O         3.658860         1.200250        10.421800        -0.160030        -1.954500         1.267730
   O         3.795090         5.432580         9.626280         1.319920         0.710792        -0.466376
   O        11.067900         6.539710         6.015860         0.409972        -0.702462        -1.465400
   O         4.952340         4.855370         7.025330        -1.311780        -0.517305        -1.396720
   O         6.837510        11.187300         1.293020        -0.581544         0.396757        -0.903252
   O         4.443720         9.927460        10.385800        -0.267633        -1.567000         2.334460
   O         7.493130         9.106450         2.413550         1.093550         0.455753         1.254160
   O         4.280090         7.565520         8.107110        -2.206790        -1.030030        -1.578120
   O         2.526560         2.528930         6.096790        -1.774510        -0.780239         1.695450
   O         7.285280         1.273760         2.172730         0.145180        -1.842210        -0.567009
   O         6.393360         4.232570        11.128300         0.502324        -0.112701        -0.276588
   O         8.953950         1.179380         7.998330         0.758919         1.090790        -0.012620
   O         8.825070         6.950800         3.837770        -0.745165        -0.418210         0.653570
   O         2.532170         2.330910         1.731420        -0.338365         0.080823        -0.145405
   O         8.615400         3.886350         7.136170         1.671630         0.394485         1.324950
   O         8.606820        11.253600         8.275180        -0.682746         0.555099        -1.099300
   O        10.793800         8.085950         2.943340         2.124860         0.178953         1.388450
   O         1.911930         6.407630        10.706500        -1.165270         0.550506         0.500085
   O         6.542360         5.473590         8.412920         1.557630         0.717725         1.843890
   O         6.678140         7.001570         6.214570        -1.118970         0.933218        -0.178870
   O         9.195600         5.464360         9.601920         0.353703        -0.369933        -1.876410
   O        10.635800         7.754150        11.199200         0.400268        -0.300857         0.581704
   O        10.058700         3.401050         4.153740         0.636534        -0.161797         1.017390
   O        11.264500         8.494070         8.822800         1.348350         0.028884        -0.579028
   O         7.899760         5.249080         5.536510         0.157406         0.093332        -1.341970
   O         2.103470         6.349380         1.967810        -1.361740        -0.300965        -0.650378
   O         7.569360        11.007000         5.167870         0.931415         1.870050        -1.044890
   O         1.300410         6.324170         6.705650        -0.001395        -0.229899         0.228584
   O         3.681130         4.120980         5.131680        -0.105868         1.858830        -2.086020
   O         9.541020         7.773930         1.165870        -1.060220        -1.281060        -1.309400
   O         1.892170         8.005020         4.324120        -2.182060         1.308750         1.037770
   O         4.986260         2.708350         1.228450         0.496366         0.578704        -0.847976
   O         4.917160        11.238700         8.686660         0.128689         1.634480        -2.539270
   O         4.254010         9.206840         3.425680         0.684109         0.683920        -1.726660
   O        10.146900        10.375500         2.610450         0.044575         0.667427        -0.353899
   O         9.954130         4.758170         1.305310        -0.083970        -0.342711         0.262111
   O         7.156230         1.350490         4.737530         0.091979        -0.351582        -0.604919
   O         7.789920         6.838160        10.780400        -1.091040         1.224550         0.812057
   O         1.587640         3.856590         9.896920        -1.700320         0.355656         0.767012
   O        10.754200         4.592160        10.884900         1.100600        -0.402024         1.495240
   O         1.726120        11.212500         3.970840         0.150585         0.064776         0.461120
   O         6.253140         1.276960         8.941170         0.247634         0.161720         0.443047
   O         1.874610         8.971000         1.508620        -0.275689         0.857384         0.037888
   O         3.450760         6.588120         3.706670         2.679910        -0.874044         0.282505
   O         6.091120         8.586870         8.823870         1.594090         0.305369        -0.850798
	192
Lattice="13.429078895201691 0.0 0.0 0.0 13.429078895201691 0.0 0.0 0.0 13.429078895201691" Properties=species:S:1:pos:R:3:forces:R:3 pbc="True True True"
   H         5.786290         9.887580         5.981000        -0.220287        -0.733161         0.295815
   H         4.866530        10.532800         4.891430         1.363730        -0.487679         0.733879
   H         1.378580         8.484890         8.395310        -0.830079        -0.433951        -0.746237
   H        -0.116116         8.597590         7.938550        -0.204221        -0.255316         0.275680
   H         9.367780         8.654200        10.272100        -0.403776        -0.533012         0.119289
   H        10.140400         9.376840        11.313200         0.174123        -0.012880         0.124599
   H         1.249550        12.169600         6.261040         0.339631        -0.182945         0.027055
   H         2.047920        11.532600         7.426020        -0.282985         0.478478        -0.526930
   H         4.307030         6.548860        10.797600         0.051673         1.189730         0.147761
   H         4.530590         8.082390        11.182100        -0.447015         0.320725        -0.137993
   H        12.940800         3.855600         7.628960         0.279202         0.013811        -0.184164
   H        11.493100         3.857270         8.225640        -0.028371        -0.060385        -0.245541
   H        11.544500        11.285700         6.333980         0.383271         0.266748         0.243653
   H        12.633300        12.110400         7.132390         0.007470        -0.400734         0.137686
   H         6.622630         8.233690         0.328055         0.003572         0.380780         0.158411
   H         6.112210         9.744000         0.236974         0.130529        -0.197985         0.427913
   H         4.996480         2.752970         6.385360        -0.712471         0.677556        -0.505529
   H         5.775610         2.052040         7.357950         0.031475        -0.725389        -0.023091
   H         3.450900         1.156940         8.276830         0.206341        -0.412317         0.040333
   H         3.853230         2.311930         9.179450         0.264852        -0.049314         0.727266
   H         3.502700         0.849703         4.183370         0.888400        -0.497436        -0.359654
   H         5.044690         0.806555         3.884850        -0.947353        -0.005925        -0.033286
   H         0.634908         9.501240        11.289000        -0.073023         0.125536        -0.787981
   H         0.842568        10.813000        10.463600        -0.002049        -0.686018         0.215684
   H         5.638110        11.263800        10.538800        -0.411952        -0.280815        -0.143282
   H         6.492390        10.557400        11.620900        -0.324092         0.265773        -0.505796
   H         8.750490         3.921200         2.975230        -0.442565         0.495693        -0.173742
   H         7.595300         4.629680         2.202830         0.688791        -0.944413         0.349871
   H         7.426630         6.637690         3.307240         0.501649         0.236907        -0.076036
   H         5.982130         6.664370         2.699450         0.331638        -0.355603         0.628569
   H        10.081300         2.666390        10.639000        -0.081481         0.070059         0.612756
   H         9.613760         1.618230        11.732900         0.035068         0.477417         0.477569
   H         3.061010         9.312240         6.759720        -0.313014         0.091076        -0.955947
   H         2.163870         9.658910         5.501230        -0.219234        -0.311724         0.005854
   H         9.615860         6.567500         6.545600        -0.518629        -0.470005        -0.388489
   H         8.153060         6.724570         7.315600         0.531713        -0.207548        -0.538652
   H        10.196700         9.297270         6.830310        -0.175034        -0.562268         1.327000
   H         9.638100        10.067200         5.638240         0.033474         0.054163         0.005822
   H         3.312350        -0.823278        12.380200        -0.008585        -0.239807        -0.367406
   H         3.053180        12.208700        10.907300        -0.096466        -0.410474         0.093246
   H         2.939220         4.527640        10.318400         0.317900        -0.037484         0.726299
   H         4.495410         4.956580        10.752600        -0.841001        -1.627750        -0.125054
   H        11.877400         7.339230         5.193270         0.129796        -0.592838         0.137164
   H        12.289900         5.796410         5.292930         0.164059         0.342146        -0.175704
   H         5.796240         4.804250         7.349400         0.555859         0.191955         0.002654
   H         4.394110         4.490290         7.816050         0.502973         0.724404        -0.930578
   H         6.805800        11.873400         0.939335        -0.027263         0.461223        -0.588940
   H         6.118970        11.871300        -0.527090         0.318046         0.144337         0.820346
   H         2.810070         9.662310        12.199700         0.739842         0.111891         0.191145
   H         3.936070         9.637020        -0.115258        -0.279353        -0.022089        -0.460795
   H         6.875580         9.893520         3.723720        -0.350245        -0.092418        -0.006253
   H         7.438450         9.473610         2.267860        -0.190974         0.069460         1.309920
   H         4.192120         7.018700         7.686610        -0.252931         0.067083         0.257902
   H         3.047530         6.814310         6.817040        -0.384095        -0.126787        -0.448969
   H         1.509950         2.315830         7.517570         0.211257        -0.454273         0.145202
   H         0.759188         1.046620         6.977440         0.395124         0.208432         0.262971
   H         7.340000         0.390728         2.419350         0.668661         0.028527        -0.640761
   H         8.551070         0.817613         1.588230        -0.019959         0.106314         0.043465
   H         5.578820         4.227920        12.563800         0.468197        -0.401572        -0.332775
   H         6.456110         3.408950        11.572600        -0.243750         0.010972         0.210549
   H        10.545000         0.628422         7.857650         0.287883        -0.167211        -0.147348
   H         9.813290         0.311144         6.544510         0.624859        -0.495211        -1.323860
   H        10.050200         6.929890         4.306880         0.162035         0.045537         0.125257
   H         9.140100         8.199080         4.057640         0.341173        -1.701500        -0.456157
   H         0.658340         2.273580         1.161800        -0.168325        -0.260268         0.083275
   H         2.131330         2.127240         1.599400        -0.095840        -0.213076        -0.032423
   H         8.787450         3.100650         7.897280        -0.016755         0.481355        -0.381532
   H         8.571910         4.425350         7.013620        -0.417997        -0.093877        -0.118843
   H         8.442700        10.676100         7.355180         0.204432         0.630087        -0.023078
   H         8.673260        12.161800         7.739600        -0.097568        -0.549023         0.288577
   H        12.831600         8.277320         2.889280        -0.309785        -0.103818        -0.260430
   H        11.875500         7.247450         2.242300         0.171178         0.039369        -0.007694
   H         2.078740         6.921480        11.876800        -0.967248         0.110550        -0.311787
   H         0.765108         6.525860        12.511700         0.344709        -0.044074        -0.523224
   H         6.117090         6.255430         9.323310         1.593320        -0.871403         0.506598
   H         7.093260         5.320620        10.208200        -0.465781         0.373632        -0.129105
   H         7.007050         7.306460         5.271270         0.295583         0.115766        -0.108073
   H         5.590440         6.883440         5.040450         0.205000         0.070684         0.137422
   H        10.879000         5.150200        10.108900        -0.908828         0.942432        -0.408925
   H         9.912810         5.854850         8.982500         0.155234        -0.525734         0.871767
   H        12.736600         7.891210        11.926400         0.126053        -0.263106        -0.167606
   H        12.038800         6.631970        12.480000        -0.322676         0.688966        -0.565165
   H        11.208600         2.031210         4.501160        -0.156069         0.221870         0.109795
   H        10.765800         3.399070         5.087000        -0.184779        -0.512919        -0.189378
   H        10.828100         8.460690         9.168660         0.277245         0.870894         0.103618