	192
Lattice="12.425416 0.0 0.0 0.0 12.425416 0.0 0.0 0.0 12.425416" pbc="True True True"
   H	        5.673140	        9.528940	        6.247180
   H	        5.823640	        8.732340	        4.886350
   H	        2.017790	        8.399910	        7.967680
   H	        1.199660	        9.036360	        6.769910
   H	        9.241910	        8.776880	        9.838540
   H	       10.108600	       10.088600	       10.031300
   H	        1.454940	       11.201200	        7.067030
   H	        3.030610	       11.224100	        6.906410
   H	        5.644420	        6.394370	       10.683700
   H	        4.997590	        7.838020	       10.764600
   H	       11.225100	        3.321480	        7.508720
   H	       10.544200	        4.633480	        8.078070
   H	       10.568500	       10.990300	        5.450560
   H	       11.236100	       10.607700	        6.835120
   H	        5.108500	        7.338530	        1.201410
   H	        5.712460	        8.802800	        1.187330
   H	        6.054590	        3.204390	        6.116180
   H	        6.566180	        3.094360	        7.611250
   H	        4.515870	        3.150910	        9.516790
   H	        3.424900	        2.466190	        8.594840
   H	        4.235760	        1.199820	        4.693590
   H	        4.972490	        2.546720	        4.303540
   H	        1.296480	        8.715280	       10.177500
   H	        1.199630	       10.182300	        9.588080
   H	        7.058710	       10.645600	       11.226200
   H	        7.197630	        9.187350	       10.623500
   H	        7.992620	        3.677610	        1.617650
   H	        7.064610	        3.833150	        2.891870
   H	        6.326610	        6.224610	        3.674270
   H	        7.237270	        5.967980	        2.403880
   H	        8.859490	        2.606770	       11.112400
   H	       10.062900	        2.313820	       10.125000
   H	        3.609450	        8.474190	        5.591580
   H	        2.775380	        9.781960	        5.270430
   H	        9.065190	        6.572440	        6.915380
   H	        8.552520	        7.783440	        7.798380
   H	        9.796270	        9.077180	        6.207230
   H	        8.694550	        9.121110	        5.069980
   H	        4.621280	        1.209810	       10.542400
   H	        3.245230	        1.785400	       11.075600
   H	        3.020490	        5.485400	        9.044810
   H	        3.551040	        4.981890	       10.449800
   H	       11.242800	        7.469980	        5.803920
   H	       11.253000	        6.381690	        6.954830
   H	        4.649850	        5.769370	        6.907020
   H	        4.447260	        4.437630	        7.740380
   H	        6.037860	       11.062500	        1.827690
   H	        7.612730	       11.225700	        1.874800
   H	        3.841230	        9.608890	        9.695600
   H	        3.978340	        9.948630	       11.236600
   H	        8.279440	        8.862440	        2.926470
   H	        6.785430	        9.380820	        3.017520
   H	        4.201370	        8.446330	        7.708520
   H	        3.787480	        7.543430	        8.942430
   H	        3.178230	        1.922080	        6.481450
   H	        1.804100	        2.018030	        5.699400
   H	        8.066660	        1.201850	        2.742990
   H	        7.558150	        1.549240	        1.283600
   H	        5.432190	        4.162310	       11.238400
   H	        6.795080	        3.355180	       11.226700
   H	        8.061130	        1.368680	        7.669770
   H	        9.609020	        1.546600	        7.384400
   H	        9.512230	        7.178850	        4.483290
   H	        9.235200	        6.540920	        3.060140
   H	        2.047820	        1.677590	        1.202760
   H	        1.946100	        2.692790	        2.414410
   H	        9.276270	        3.530490	        6.521750
   H	        8.702980	        3.445870	        7.995940
   H	        7.723290	       10.983600	        7.979560
   H	        9.237430	       11.150600	        7.545360
   H	       11.244700	        8.287220	        3.778300
   H	       11.229300	        7.332960	        2.514090
   H	        2.699910	        6.970990	       10.757500
   H	        1.197060	        6.803420	       11.229100
   H	        6.755290	        4.760530	        9.035100
   H	        7.023120	        5.332300	        7.582380
   H	        6.056520	        7.444680	        6.813020
   H	        7.382300	        7.619890	        5.964100
   H	        8.791040	        4.618870	        9.851680
   H	        8.621240	        5.923200	        8.969100
   H	       11.158100	        8.571100	       11.226200
   H	       11.219600	        7.003350	       11.008400
   H	        9.126310	        3.220520	        4.350950
   H	       10.132900	        4.250800	        3.691870
   H	       10.925200	        7.590420	        8.918500
   H	       10.700000	        8.988030	        8.207860
   H	        8.809260	        5.223950	        5.200230
   H	        7.355220	        4.615380	        5.043760
   H	        1.197610	        6.162210	        1.675770
   H	        2.674690	        6.469260	        1.193060
   H	        7.111100	       11.227300	        4.341820
   H	        7.009020	       11.246900	        5.922410
   H	        2.189990	        6.693030	        6.589490
   H	        1.194160	        5.549410	        6.131760
   H	        4.493440	        4.603860	        4.912820
   H	        3.160570	        4.635640	        5.768110
   H	        8.601440	        7.535900	        1.203790
   H	        9.631500	        8.739220	        1.196020
   H	        1.567800	        7.917830	        3.414130
   H	        1.188810	        7.754830	        4.943460
   H	        4.648100	        2.736640	        2.137160
   H	        5.908270	        3.009470	        1.217050
   H	        5.816640	       11.223300	        9.049420
   H	        4.846710	       10.589600	        7.969240
   H	        4.646180	        8.395970	        3.065690
   H	        3.307870	        9.230370	        3.213180
   H	        9.722520	       11.237200	        2.474970
   H	       10.006800	       10.086400	        3.525690
   H	        9.257800	        5.424980	        1.198640
   H	       10.706900	        5.149200	        1.775720
   H	        7.147670	        2.270410	        4.430010
   H	        6.371430	        1.184590	        5.282940
   H	        7.732680	        5.974470	       11.218200
   H	        8.330020	        7.438110	       11.318300
   H	        1.448050	        2.897260	        9.863660
   H	        1.197950	        4.267520	        9.109420
   H	       11.223300	        3.817740	       11.232800
   H	       11.264600	        4.979000	       10.156400
   H	        1.183740	       10.921600	        3.221090
   H	        2.654150	       11.271600	        3.694880
   H	        6.405620	        2.032570	        9.529980
   H	        5.426640	        1.410430	        8.451290
   H	        2.730640	        8.667410	        1.168090
   H	        1.190830	        8.317570	        1.293270
   H	        2.938020	        5.791190	        3.913800
   H	        4.148500	        6.705220	        4.370240
   H	        6.298850	        7.657020	        9.005920
   H	        6.874260	        9.027620	        8.458710
   O	        5.773230	        9.614670	        5.286170
   O	        1.285960	        8.992540	        7.735070
   O	        9.254420	        9.740800	        9.730840
   O	        2.297470	       10.970200	        7.488560
   O	        5.088830	        6.984580	       11.216500
   O	       10.944200	        3.782080	        8.314850
   O	       11.226100	       11.255000	        6.112760
   O	        5.928150	        7.857240	        1.204740
   O	        6.737610	        2.829530	        6.693980
   O	        3.568180	        3.097930	        9.316830
   O	        4.169290	        2.017890	        4.176640
   O	        1.697260	        9.598600	       10.181800
   O	        7.147390	       10.131800	       10.408200
   O	        7.836390	        3.373780	        2.525490
   O	        6.391590	        6.329510	        2.712150
   O	        9.374630	        1.910020	       10.676500
   O	        3.530840	        9.425580	        5.763570
   O	        9.338190	        7.339300	        7.442910
   O	        8.953490	        9.473380	        5.935860
   O	        3.658860	        1.200250	       10.421800
   O	        3.795090	        5.432580	        9.626280
   O	       11.067900	        6.539710	        6.015860
   O	        4.952340	        4.855370	        7.025330
   O	        6.837510	       11.187300	        1.293020
   O	        4.443720	        9.927460	       10.385800
   O	        7.493130	        9.106450	        2.413550
   O	        4.280090	        7.565520	        8.107110
   O	        2.526560	        2.528930	        6.096790
   O	        7.285280	        1.273760	        2.172730
   O	        6.393360	        4.232570	       11.128300
   O	        8.953950	        1.179380	        7.998330
   O	        8.825070	        6.950800	        3.837770
   O	        2.532170	        2.330910	        1.731420
   O	        8.615400	        3.886350	        7.136170
   O	        8.606820	       11.253600	        8.275180
   O	       10.793800	        8.085950	        2.943340
   O	        1.911930	        6.407630	       10.706500
   O	        6.542360	        5.473590	        8.412920
   O	        6.678140	        7.001570	        6.214570
   O	        9.195600	        5.464360	        9.601920
   O	       10.635800	        7.754150	       11.199200
   O	       10.058700	        3.401050	        4.153740
   O	       11.264500	        8.494070	        8.822800
   O	        7.899760	        5.249080	        5.536510
   O	        2.103470	        6.349380	        1.967810
   O	        7.569360	       11.007000	        5.167870
   O	        1.300410	        6.324170	        6.705650
   O	        3.681130	        4.120980	        5.131680
   O	        9.541020	        7.773930	        1.165870
   O	        1.892170	        8.005020	        4.324120
   O	        4.986260	        2.708350	        1.228450
   O	        4.917160	       11.238700	        8.686660
   O	        4.254010	        9.206840	        3.425680
   O	       10.146900	       10.375500	        2.610450
   O	        9.954130	        4.758170	        1.305310
   O	        7.156230	        1.350490	        4.737530
   O	        7.789920	        6.838160	       10.780400
   O	        1.587640	        3.856590	        9.896920
   O	       10.754200	        4.592160	       10.884900
   O	        1.726120	       11.212500	        3.970840
   O	        6.253140	        1.276960	        8.941170
   O	        1.874610	        8.971000	        1.508620
   O	        3.450760	        6.588120	        3.706670
   O	        6.091120	        8.586870	        8.823870
	192
Lattice="13.429078895201691 0.0 0.0 0.0 13.429078895201691 0.0 0.0 0.0 13.429078895201691" pbc="True True True"
   H	        5.786290	        9.887580	        5.981000
   H	        4.866530	       10.532800	        4.891430
   H	        1.378580	        8.484890	        8.395310
   H	       -0.116116	        8.597590	        7.938550
   H	        9.367780	        8.654200	       10.272100
   H	       10.140400	        9.376840	       11.313200
   H	        1.249550	       12.169600	        6.261040
   H	        2.047920	       11.532600	        7.426020
   H	        4.307030	        6.548860	       10.797600
   H	        4.530590	        8.082390	       11.182100
   H	       12.940800	        3.855600	        7.628960
   H	       11.493100	        3.857270	        8.225640
   H	       11.544500	       11.285700	        6.333980
   H	       12.633300	       12.110400	        7.132390
   H	        6.622630	        8.233690	        0.328055
   H	        6.112210	        9.744000	        0.236974
   H	        4.996480	        2.752970	        6.385360
   H	        5.775610	        2.052040	        7.357950
   H	        3.450900	        1.156940	        8.276830
   H	        3.853230	        2.311930	        9.179450
   H	        3.502700	        0.849703	        4.183370
   H	        5.044690	        0.806555	        3.884850
   H	        0.634908	        9.501240	       11.289000
   H	        0.842568	       10.813000	       10.463600
   H	        5.638110	       11.263800	       10.538800
   H	        6.492390	       10.557400	       11.620900
   H	        8.750490	        3.921200	        2.975230
   H	        7.595300	        4.629680	        2.202830
   H	        7.426630	        6.637690	        3.307240
   H	        5.982130	        6.664370	        2.699450
   H	       10.081300	        2.666390	       10.639000
   H	        9.613760	        1.618230	       11.732900
   H	        3.061010	        9.312240	        6.759720
   H	        2.163870	        9.658910	        5.501230
   H	        9.615860	        6.567500	        6.545600
   H	        8.153060	        6.724570	        7.315600
   H	       10.196700	        9.297270	        6.830310
   H	        9.638100	       10.067200	        5.638240
   H	        3.312350	       -0.823278	       12.380200
   H	        3.053180	       12.208700	       10.907300
   H	        2.939220	        4.527640	       10.318400
   H	        4.495410	        4.956580	       10.752600
   H	       11.877400	        7.339230	        5.193270
   H	       12.289900	        5.796410	        5.292930
   H	        5.796240	        4.804250	        7.349400
   H	        4.394110	        4.490290	        7.816050
   H	        6.805800	       11.873400	        0.939335
   H	        6.118970	       11.871300	       -0.527090
   H	        2.810070	        9.662310	       12.199700
   H	        3.936070	        9.637020	       -0.115258
   H	        6.875580	        9.893520	        3.723720
   H	        7.438450	        9.473610	        2.267860
   H	        4.192120	        7.018700	        7.686610
   H	        3.047530	        6.814310	        6.817040
   H	        1.509950	        2.315830	        7.517570
   H	        0.759188	        1.046620	        6.977440
   H	        7.340000	        0.390728	        2.419350
   H	        8.551070	        0.817613	        1.588230
   H	        5.578820	        4.227920	       12.563800
   H	        6.456110	        3.408950	       11.572600
   H	       10.545000	        0.628422	        7.857650
   H	        9.813290	        0.311144	        6.544510
   H	       10.050200	        6.929890	        4.306880
   H	        9.140100	        8.199080	        4.057640
   H	        0.658340	        2.273580	        1.161800
   H	        2.131330	        2.127240	        1.599400
   H	        8.787450	        3.100650	        7.897280
   H	        8.571910	        4.425350	        7.013620
   H	        8.442700	       10.676100	        7.355180
   H	        8.673260	       12.161800	        7.739600
   H	       12.831600	        8.277320	        2.889280
   H	       11.875500	        7.247450	        2.242300
   H	        2.078740	        6.921480	       11.876800
   H	        0.765108	        6.525860	       12.511700
   H	        6.117090	        6.255430	        9.323310
   H	        7.093260	        5.320620	       10.208200
   H	        7.007050	        7.306460	        5.271270
   H	        5.590440	        6.883440	        5.040450
   H	       10.879000	        5.150200	       10.108900
   H	        9.912810	        5.854850	        8.982500
   H	       12.736600	        7.891210	       11.926400
   H	       12.038800	        6.631970	       12.480000
   H	       11.208600	        2.031210	        4.501160
   H	       10.765800	        3.399070	        5.087000
   H	       10.828100	        8.460690	        9.168660
   H	       11.368900	        7.187000	        8.765270
   H	        7.113730	        4.682450	        5.047690
   H	        8.056470	        3.485030	        5.535200
   H	        2.252970	        5.722930	        1.125420
   H	        1.189830	        6.785850	        0.912326
   H	        7.760380	       11.843000	        4.847550
   H	        9.359610	       11.775300	        4.379890
   H	        0.307512	        5.885750	        7.081990
   H	        1.610380	        5.120910	        7.315640
   H	        2.074000	        3.862080	        5.184430
   H	        2.915610	        3.133950	        4.140670
   H	        9.308380	        7.882030	        1.653990
   H	        9.234630	        7.399480	        0.144664
   H	        1.876080	        8.026160	        3.997820
   H	        0.918403	        8.189530	        5.154890
   H	        5.026180	        1.937210	       -0.316209
   H	        5.265210	        2.179170	        1.179710
   H	        5.862050	       11.119600	        7.649580
   H	        4.994690	       12.153400	        6.871590
   H	        4.815900	        9.393820	        1.922090
   H	        4.156360	       10.770600	        2.458650
   H	        9.884220	       11.419900	        2.368880
   H	       11.328700	       10.918900	        2.781330
   H	       10.379500	        4.021070	        1.964830
   H	       10.619600	        5.429700	        1.186080
   H	        7.638310	        1.236450	        4.791670
   H	        7.965940	        2.506870	        3.837790
   H	        6.818220	        7.601250	       11.556100
   H	        7.463630	        8.944530	       11.168400
   H	       -0.167431	        3.053560	       10.042500
   H	        0.693534	        4.173040	       10.627700
   H	       11.142800	        4.145430	       -0.450379
   H	       12.352100	        3.839360	       11.883300
   H	        1.688850	       11.105000	        3.601120
   H	        1.603760	       12.584200	        3.159920
   H	        6.998730	        1.130830	        9.673500
   H	        5.826120	        0.256451	       10.168000
   H	        0.851469	        9.430920	       -0.461577
   H	        1.352570	       10.056200	        0.874623
   H	        3.504480	        6.235900	        3.068050
   H	        3.698420	        7.857960	        2.815690
   H	        7.462010	        8.275550	        9.361510
   H	        7.527960	        9.645300	        8.588050
   O	        5.821350	       10.419300	        5.189360
   O	        0.747960	        8.245500	        7.670350
   O	        9.759680	        9.513380	       10.437200
   O	        1.530320	       12.328100	        7.176560
   O	        4.781060	        7.179980	       11.391300
   O	       12.395700	        3.536900	        8.360440
   O	       11.951500	       12.168800	        6.455590
   O	        5.953850	        8.864360	        0.654541
   O	        5.603630	        2.017770	        6.402150
   O	        3.565000	        2.108500	        8.295120
   O	        4.167490	        0.499462	        3.544940
   O	        1.211140	        9.919430	       10.624000
   O	        6.485190	       11.296400	       10.987200
   O	        8.176690	        3.815620	        2.195050
   O	        6.594810	        6.145900	        3.270910
   O	        9.853020	        1.746160	       10.818600
   O	        2.997070	        9.857540	        5.937850
   O	        9.078660	        7.007370	        7.207130
   O	       10.334500	        9.445540	        5.907410
   O	        3.382900	       -0.514638	       11.463700
   O	        3.805660	        4.850880	       10.048700
   O	       11.586000	        6.439470	        5.446270
   O	        4.887770	        4.941900	        7.068970
   O	        6.110620	       11.482500	        0.378712
   O	        3.757810	        9.851390	       12.374100
   O	        7.654720	        9.588310	        3.232390
   O	        3.232760	        7.208680	        7.670800
   O	        0.745650	        2.014440	        7.009080
   O	        7.872980	        0.133161	        1.625940
   O	        5.948280	        4.229200	       11.656500
   O	        9.682730	        0.559547	        7.441370
   O	        9.285990	        7.231660	        3.799000
   O	        1.514090	        2.702470	        1.136000
   O	        9.187910	        3.921130	        7.556800
   O	        8.430300	       11.280300	        8.118710
   O	       11.909300	        8.145420	        2.593200
   O	        1.105200	        6.965850	       11.698300
   O	        7.033150	        5.850280	        9.394280
   O	        6.167710	        7.250430	        5.733920
   O	       10.196700	        5.852830	        9.933220
   O	       11.894200	        7.587600	       12.271500
   O	       10.497700	        2.691080	        4.469210
   O	       11.524500	        8.140220	        8.571470
   O	        7.999410	        4.416600	        5.309920
   O	        1.338210	        5.825230	        0.841914
   O	        8.675380	       12.040600	        5.019560
   O	        0.744871	        5.028490	        6.893580
   O	        2.739360	        4.047540	        4.513530
   O	        8.725960	        7.755340	        0.888059
   O	        1.107600	        8.572160	        4.269510
   O	        5.168850	        2.628740	        0.346608
   O	        5.423250	       11.972500	        7.718390
   O	        4.047250	        9.830830	        2.357780
   O	       10.604500	       11.525900	        3.041230
   O	       10.539700	        4.480740	        1.142940
   O	        7.303080	        1.855860	        4.109770
   O	        7.660260	        8.026750	       11.414500
   O	        0.558486	        3.227820	       10.635800
   O	       11.690100	        4.503600	       12.236600
   O	        2.136260	       11.946500	        3.613520
   O	        6.024620	        1.076010	        9.680840
   O	        0.898922	        9.292990	        0.494019
   O	        4.129400	        7.026170	        3.067860
   O	        7.034710	        8.820220	        8.683550
	192
Lattice="13.691111461890578 0.0 0.0 0.0 13.691111461890578 0.0 0.0 0.0 13.691111461890578" pbc="True True True"
   H	        5.891540	       10.059300	        5.594200
   H	        4.572530	       10.606500	        4.997120
   H	        0.613010	        7.198440	        6.996990
   H	       13.146200	        8.022530	        7.562780
   H	        9.179880	        9.046980	       11.271200
   H	       10.593800	        8.725150	       11.770000
   H	        1.342440	       12.089100	        5.669280
   H	        2.134860	       12.348600	        6.977850
   H	        4.205720	        6.567950	       10.762600
   H	        3.650120	        8.003120	       11.245500
   H	       12.517100	        2.743500	        8.499200
   H	       11.355300	        3.644420	        8.442040
   H	       12.282400	       11.593200	        6.045110
   H	       -0.600612	       12.728700	        6.694440
   H	        6.993490	        9.038480	        0.326131
   H	        6.103730	       10.282900	        0.667527
   H	        4.754000	        2.080100	        5.941780
   H	        5.246270	        0.911807	        6.606980
   H	        3.403570	        0.431909	        8.979440
   H	        3.252170	        1.920990	        8.852070
   H	        5.415440	       -0.338844	        2.814330
   H	        4.842150	        0.903363	        3.500930
   H	        1.320670	        9.595930	       11.216200
   H	       -0.022792	        9.552120	       10.448300
   H	        5.313770	       12.075700	       10.227800
   H	        6.677450	       11.420400	        9.967000
   H	        9.249740	        3.976830	        1.662010
   H	        7.698240	        4.500500	        2.000660
   H	        7.307570	        6.633170	        2.351680
   H	        5.866740	        5.943680	        2.586020
   H	        9.763710	        1.363330	       10.932600
   H	       11.025000	        2.275480	       10.681300
   H	        3.558390	        9.814190	        6.856960
   H	        2.488440	        9.757140	        5.756190
   H	       10.018700	        6.527180	        6.111510
   H	        9.436120	        5.912580	        7.474840
   H	       11.195600	        9.364850	        6.356690
   H	       10.528400	       10.654000	        5.894790
   H	        3.488380	       11.179700	       11.944200
   H	        2.770640	       12.321200	       12.719600
   H	        2.693090	        3.967410	       10.300400
   H	        4.121330	        4.441920	       10.872700
   H	       12.661000	        7.240700	        5.642350
   H	       12.404700	        5.713630	        5.554890
   H	        6.088850	        4.214560	        7.280640
   H	        5.176600	        4.299210	        8.461010
   H	        6.514680	       12.423900	        0.383524
   H	        5.252550	       12.130600	       -0.529919
   H	        2.682330	        9.068190	       -0.163165
   H	        4.215700	        8.800510	       -0.305687
   H	        7.219170	       10.615100	        3.509110
   H	        7.086920	        9.350710	        2.657710
   H	        4.017050	        7.115090	        7.550970
   H	        2.746360	        6.364160	        7.583570
   H	        1.145850	        1.548770	        7.872930
   H	        0.663704	        1.322400	        6.432520
   H	        7.610550	        0.661094	        1.245740
   H	        8.884880	       -0.142153	        1.594220
   H	        5.759200	        3.264680	       12.356500
   H	        6.547280	        3.317110	       10.999600
   H	       10.839000	       13.380700	        7.400360
   H	        9.634090	       -0.693836	        6.472760
   H	       10.290500	        7.993710	        3.966070
   H	        8.861100	        8.522750	        3.621280
   H	        1.390730	        2.677120	        1.992730
   H	        1.476620	        3.962180	        1.084030
   H	        9.213570	        3.577950	        8.622970
   H	        8.870810	        3.661130	        7.087110
   H	        9.644440	       10.712400	        8.626060
   H	        9.077470	       11.984200	        7.857150
   H	       12.698700	        8.148550	        2.115730
   H	       11.747600	        7.589480	        1.036460
   H	        0.936483	        6.403310	       11.099100
   H	        1.747450	        6.334120	       12.331900
   H	        7.023810	        6.799680	        8.886440
   H	        6.626730	        6.103050	       10.306800
   H	        6.439590	        6.821420	        5.632050
   H	        4.919540	        7.135050	        5.632800
   H	       11.037600	        5.225770	       10.996500
   H	       10.024300	        6.434500	       10.513400
   H	       12.623200	        8.021470	       12.533900
   H	       11.338900	        7.178470	       12.400100
   H	       10.365400	        2.203660	        5.509450
   H	        9.709350	        3.068360	        4.467910
   H	       11.052800	        8.167970	        9.195180
   H	       10.746400	        7.594040	        7.891210
   H	        7.085310	        4.659570	        5.372990
   H	        7.388550	        3.150950	        5.150580
   H	        1.145330	        5.784500	        1.668870
   H	        0.161897	        5.842300	        0.528278
   H	        8.355840	       11.620600	        4.979340
   H	        9.766510	       12.131800	        4.292450
   H	        0.482925	        4.716800	        7.608740
   H	        1.137800	        3.761050	        6.618250
   H	        1.634660	        4.520630	        4.412670
   H	        2.621950	        3.611690	        3.722680
   H	        9.140110	        7.829770	        1.900900
   H	        8.673250	        6.739860	        0.911568
   H	        2.199720	        7.987540	        4.631550
   H	        1.211540	        8.655830	        5.660090
   H	        4.994540	        1.484740	        0.836961
   H	        3.999200	        2.411990	        0.227116
   H	        6.458220	       12.756000	        7.433490
   H	        5.271770	       12.146600	        6.660340
   H	        3.671990	       10.825000	        1.463080
   H	        4.531740	       10.240100	        2.572790
   H	       11.567000	       11.663700	        2.253300
   H	       11.286700	       10.691700	        3.467780
   H	       11.480300	        4.329150	        2.574270
   H	       11.095200	        5.782440	        2.102720
   H	        7.693310	        0.877918	        3.527060
   H	        7.579700	        2.299660	        3.047960
   H	        6.715020	        8.180350	       11.358100
   H	        6.835640	        9.676480	       11.212100
   H	        1.057380	        2.336150	       10.387100
   H	        0.322838	        3.662060	        9.982220
   H	       11.821100	        4.042130	       -0.347653
   H	       12.761800	        4.008020	       12.090700
   H	        1.991150	       11.029700	        4.035680
   H	        2.589870	       12.436200	        4.163880
   H	        6.768140	        1.607220	       10.102100
   H	        5.792010	        0.463509	        9.869140
   H	        0.252950	        9.593730	       -0.525077
   H	        0.863877	       10.036500	        0.740203
   H	        3.508570	        7.126760	        2.248220
   H	        3.640780	        8.571780	        2.607260
   H	        5.862100	        9.263590	        8.365850
   H	        7.423220	        9.556560	        8.050180
   O	        5.522300	       10.788400	        5.098840
   O	        0.020463	        7.906590	        6.765070
   O	       10.117400	        9.097300	       11.012200
   O	        1.408460	       12.688800	        6.438880
   O	        4.430670	        7.482020	       11.023000
   O	       12.283600	        3.644920	        8.773330
   O	       12.253700	       12.274200	        6.695480
   O	        6.367690	        9.383650	        0.984445
   O	        5.556900	        1.565690	        5.967040
   O	        2.917800	        1.094950	        8.501220
   O	        4.584870	        0.127855	        2.960580
   O	        0.525481	       10.116900	       11.006600
   O	        6.198830	       11.966600	       10.573700
   O	        8.301450	        3.748510	        1.733080
   O	        6.800400	        5.932340	        2.774510
   O	       10.118600	        2.091930	       10.421700
   O	        3.067940	       10.387000	        6.269870